 TITLE = "CPV11_q1.1"
 VARIABLES = "CoordinateX"
 "CoordinateY"
 "CoordinateZ"
 #------------------------------------------------------------------------------+
# file "plan" created by FLOWer  release 2010.1  (MultiRotor mod.),  SVN revision: 1086 (guessed)
# cell CENTRED discretization - output on grid nodes        
#------------------------------------------------------------------------------+
ZONE T="plan      101", I=    321, J=     65, F=POINT
1.0000000000e+000 6.9015007193e-004 0.0000000000e+000
9.9904336596e-001 9.8144257389e-004 0.0000000000e+000
9.9803324573e-001 1.2890214806e-003 0.0000000000e+000
9.9696676721e-001 1.6137613332e-003 0.0000000000e+000
9.9584091792e-001 1.9565794280e-003 0.0000000000e+000
9.9465253970e-001 2.3184374123e-003 0.0000000000e+000
9.9339832353e-001 2.7003428775e-003 0.0000000000e+000
9.9207480429e-001 3.1033509417e-003 0.0000000000e+000
9.9067835566e-001 3.5285658104e-003 0.0000000000e+000
9.8920518509e-001 3.9771423031e-003 0.0000000000e+000
9.8765132896e-001 4.4502873320e-003 0.0000000000e+000
9.8601264793e-001 4.9492613179e-003 0.0000000000e+000
9.8428482253e-001 5.4753795250e-003 0.0000000000e+000
9.8246334913e-001 6.0300132966e-003 0.0000000000e+000
9.8054353628e-001 6.6145911685e-003 0.0000000000e+000
9.7851327502e-001 7.2062124673e-003 0.0000000000e+000
9.7637244820e-001 7.8231578835e-003 0.0000000000e+000
9.7411754576e-001 8.4729777122e-003 0.0000000000e+000
9.7174071317e-001 9.1489141423e-003 0.0000000000e+000
9.6923438907e-001 9.8460012813e-003 0.0000000000e+000
9.6659657136e-001 1.0579660908e-002 0.0000000000e+000
9.6381840762e-001 1.1341526408e-002 0.0000000000e+000
9.6089224986e-001 1.2128394411e-002 0.0000000000e+000
9.5781537026e-001 1.2955792759e-002 0.0000000000e+000
9.5457836350e-001 1.3815232318e-002 0.0000000000e+000
9.5117316713e-001 1.4704001733e-002 0.0000000000e+000
9.4759635622e-001 1.5637563204e-002 0.0000000000e+000
9.4384074119e-001 1.6617793246e-002 0.0000000000e+000
9.3989626789e-001 1.7636088590e-002 0.0000000000e+000
9.3575695987e-001 1.8700099699e-002 0.0000000000e+000
9.3141631099e-001 1.9815865571e-002 0.0000000000e+000
9.2686667144e-001 2.0985352595e-002 0.0000000000e+000
9.2210035784e-001 2.2210642120e-002 0.0000000000e+000
9.1710981993e-001 2.3494460124e-002 0.0000000000e+000
9.1188711490e-001 2.4838003219e-002 0.0000000000e+000
9.0642453870e-001 2.6243253275e-002 0.0000000000e+000
9.0071452260e-001 2.7712417013e-002 0.0000000000e+000
8.9474963033e-001 2.9247741681e-002 0.0000000000e+000
8.8852237022e-001 3.0850598133e-002 0.0000000000e+000
8.8202549388e-001 3.2522439164e-002 0.0000000000e+000
8.7525063204e-001 3.4259271795e-002 0.0000000000e+000
8.6819272309e-001 3.6068667598e-002 0.0000000000e+000
8.6084497252e-001 3.7949881092e-002 0.0000000000e+000
8.5319971961e-001 3.9896952257e-002 0.0000000000e+000
8.4525408100e-001 4.1920524790e-002 0.0000000000e+000
8.3700083185e-001 4.4011802487e-002 0.0000000000e+000
8.2843681646e-001 4.6175354190e-002 0.0000000000e+000
8.1955874527e-001 4.8412194968e-002 0.0000000000e+000
8.1036169181e-001 5.0713583380e-002 0.0000000000e+000
8.0084679460e-001 5.3091272228e-002 0.0000000000e+000
7.9100796785e-001 5.5524190691e-002 0.0000000000e+000
7.8085043543e-001 5.8032477540e-002 0.0000000000e+000
7.7036816533e-001 6.0586162176e-002 0.0000000000e+000
7.5956927167e-001 6.3207963923e-002 0.0000000000e+000
7.4845027248e-001 6.5867945783e-002 0.0000000000e+000
7.3701971881e-001 6.8580257102e-002 0.0000000000e+000
7.2528036248e-001 7.1329614984e-002 0.0000000000e+000
7.1323783518e-001 7.4106179307e-002 0.0000000000e+000
7.0090507444e-001 7.6926390194e-002 0.0000000000e+000
6.8828133564e-001 7.9739767275e-002 0.0000000000e+000
6.7538628860e-001 8.2579602082e-002 0.0000000000e+000
6.6222932762e-001 8.5428066896e-002 0.0000000000e+000
6.4881751308e-001 8.8247830910e-002 0.0000000000e+000
6.3517216077e-001 9.1062270337e-002 0.0000000000e+000
6.2130597014e-001 9.3848579922e-002 0.0000000000e+000
6.0722856625e-001 9.6558481089e-002 0.0000000000e+000
5.9296654718e-001 9.9224481223e-002 0.0000000000e+000
5.7853695441e-001 1.0182582556e-001 0.0000000000e+000
5.6395513685e-001 1.0432316330e-001 0.0000000000e+000
5.4924407153e-001 1.0671292312e-001 0.0000000000e+000
5.3442719277e-001 1.0899132347e-001 0.0000000000e+000
5.1952610952e-001 1.1113852248e-001 0.0000000000e+000
5.0456347011e-001 1.1313589049e-001 0.0000000000e+000
4.8956211376e-001 1.1496006771e-001 0.0000000000e+000
4.7454508878e-001 1.1658197005e-001 0.0000000000e+000
4.5954049214e-001 1.1801542664e-001 0.0000000000e+000
4.4457177425e-001 1.1922751983e-001 0.0000000000e+000
4.2966556285e-001 1.2022017619e-001 0.0000000000e+000
4.1484620968e-001 1.2095832068e-001 0.0000000000e+000
4.0013979584e-001 1.2142933040e-001 0.0000000000e+000
3.8557218965e-001 1.2161330000e-001 0.0000000000e+000
3.7116949695e-001 1.2152183199e-001 0.0000000000e+000
3.5695595131e-001 1.2118422131e-001 0.0000000000e+000
3.4295332270e-001 1.2062897514e-001 0.0000000000e+000
3.2918297546e-001 1.1985183057e-001 0.0000000000e+000
3.1566276679e-001 1.1888650411e-001 0.0000000000e+000
3.0240940014e-001 1.1774676419e-001 0.0000000000e+000
2.8943890107e-001 1.1643866585e-001 0.0000000000e+000
2.7676359902e-001 1.1498648205e-001 0.0000000000e+000
2.6439621468e-001 1.1339562592e-001 0.0000000000e+000
2.5234717273e-001 1.1167696305e-001 0.0000000000e+000
2.4062266745e-001 1.0985866767e-001 0.0000000000e+000
2.2923439751e-001 1.0792297199e-001 0.0000000000e+000
2.1818365271e-001 1.0590689326e-001 0.0000000000e+000
2.0747466302e-001 1.0381898514e-001 0.0000000000e+000
1.9711477410e-001 1.0164655892e-001 0.0000000000e+000
1.8710055266e-001 9.9423264493e-002 0.0000000000e+000
1.7743213813e-001 9.7157537225e-002 0.0000000000e+000
1.6811185681e-001 9.4844285808e-002 0.0000000000e+000
1.5913623946e-001 9.2498107562e-002 0.0000000000e+000
1.5050092541e-001 9.0131847240e-002 0.0000000000e+000
1.4220314043e-001 8.7748493142e-002 0.0000000000e+000
1.3424175834e-001 8.5343079222e-002 0.0000000000e+000
1.2660700820e-001 8.2936884554e-002 0.0000000000e+000
1.1929280266e-001 8.0535510819e-002 0.0000000000e+000
1.1229749972e-001 7.8129718244e-002 0.0000000000e+000
1.0560912461e-001 7.5739108433e-002 0.0000000000e+000
9.9219689529e-002 7.3369218456e-002 0.0000000000e+000
9.3124893064e-002 7.1014718804e-002 0.0000000000e+000
8.7314753667e-002 6.8684357376e-002 0.0000000000e+000
8.1779180141e-002 6.6385692768e-002 0.0000000000e+000
7.6513834909e-002 6.4111797143e-002 0.0000000000e+000
7.1507902543e-002 6.1870624204e-002 0.0000000000e+000
6.6752259890e-002 5.9665525532e-002 0.0000000000e+000
6.2241656425e-002 5.7491288710e-002 0.0000000000e+000
5.7962717313e-002 5.5359573491e-002 0.0000000000e+000
5.3912171361e-002 5.3261266684e-002 0.0000000000e+000
5.0075606090e-002 5.1209106673e-002 0.0000000000e+000
4.6449719384e-002 4.9194563088e-002 0.0000000000e+000
4.3021139496e-002 4.7227698196e-002 0.0000000000e+000
3.9785290252e-002 4.5302837976e-002 0.0000000000e+000
3.6731272424e-002 4.3425429339e-002 0.0000000000e+000
3.3852287057e-002 4.1593992440e-002 0.0000000000e+000
3.1141671948e-002 3.9807301260e-002 0.0000000000e+000
2.8590711814e-002 3.8067374155e-002 0.0000000000e+000
2.6193810027e-002 3.6371791451e-002 0.0000000000e+000
2.3946060775e-002 3.4717707207e-002 0.0000000000e+000
2.1840306836e-002 3.3105726872e-002 0.0000000000e+000
1.9871268959e-002 3.1534205123e-002 0.0000000000e+000
1.8033546518e-002 3.0002046042e-002 0.0000000000e+000
1.6320642582e-002 2.8509728745e-002 0.0000000000e+000
1.4726533444e-002 2.7057315797e-002 0.0000000000e+000
1.3247709519e-002 2.5642393018e-002 0.0000000000e+000
1.1876161170e-002 2.4267553933e-002 0.0000000000e+000
1.0609136784e-002 2.2930149315e-002 0.0000000000e+000
9.4402539227e-003 2.1631339059e-002 0.0000000000e+000
8.3653114454e-003 2.0370331064e-002 0.0000000000e+000
7.3802128243e-003 1.9146487835e-002 0.0000000000e+000
6.4807893073e-003 1.7959429504e-002 0.0000000000e+000
5.6627854044e-003 1.6808985220e-002 0.0000000000e+000
4.9219168841e-003 1.5695100702e-002 0.0000000000e+000
4.2547367391e-003 1.4617280616e-002 0.0000000000e+000
3.6567186077e-003 1.3575796360e-002 0.0000000000e+000
3.1240608317e-003 1.2570514363e-002 0.0000000000e+000
2.6521290212e-003 1.1601740772e-002 0.0000000000e+000
2.2371864490e-003 1.0669309741e-002 0.0000000000e+000
1.8737270771e-003 9.7737657509e-003 0.0000000000e+000
1.5581599279e-003 8.9147321391e-003 0.0000000000e+000
1.2850535094e-003 8.0924233565e-003 0.0000000000e+000
1.0500200381e-003 7.3065080724e-003 0.0000000000e+000
8.4892246054e-004 6.5564674653e-003 0.0000000000e+000
6.7765619981e-004 5.8416677501e-003 0.0000000000e+000
5.3235093642e-004 5.1613119759e-003 0.0000000000e+000
4.1060290931e-004 4.5142468774e-003 0.0000000000e+000
3.0897820918e-004 3.8994994482e-003 0.0000000000e+000
2.2527325462e-004 3.3158489384e-003 0.0000000000e+000
1.5769177322e-004 2.7620309541e-003 0.0000000000e+000
1.0437395534e-004 2.2368419517e-003 0.0000000000e+000
6.3655119129e-005 1.7390602586e-003 0.0000000000e+000
3.4123193647e-005 1.2674752512e-003 0.0000000000e+000
1.4454414593e-005 8.2090460328e-004 0.0000000000e+000
3.5256500203e-006 3.9818749950e-004 0.0000000000e+000
2.7868097225e-007 -1.7936819067e-006 0.0000000000e+000
3.7973828212e-006 -4.0177035969e-004 0.0000000000e+000
1.5088033331e-005 -8.2510904961e-004 0.0000000000e+000
3.5712143164e-005 -1.2729806100e-003 0.0000000000e+000
6.7262819182e-005 -1.7465704155e-003 0.0000000000e+000
1.1184915657e-004 -2.2470354937e-003 0.0000000000e+000
1.7139444811e-004 -2.7755468854e-003 0.0000000000e+000
2.4842900164e-004 -3.3331997363e-003 0.0000000000e+000
3.4542974418e-004 -3.9210750428e-003 0.0000000000e+000
4.6540505465e-004 -4.5401358046e-003 0.0000000000e+000
6.1156396799e-004 -5.1912456556e-003 0.0000000000e+000
7.8729549651e-004 -5.8751709659e-003 0.0000000000e+000
9.9682191885e-004 -6.5923539195e-003 0.0000000000e+000
1.2437661932e-003 -7.3433000401e-003 0.0000000000e+000
1.5333178787e-003 -8.1278667557e-003 0.0000000000e+000
1.8699998013e-003 -8.9459367181e-003 0.0000000000e+000
2.2591025113e-003 -9.7968997188e-003 0.0000000000e+000
2.7067393492e-003 -1.0679472918e-002 0.0000000000e+000
3.2183451173e-003 -1.1592384442e-002 0.0000000000e+000
3.8004479236e-003 -1.2533417313e-002 0.0000000000e+000
4.4590398644e-003 -1.3500304371e-002 0.0000000000e+000
5.2005009234e-003 -1.4490061617e-002 0.0000000000e+000
6.0306839779e-003 -1.5499704982e-002 0.0000000000e+000
6.9543065647e-003 -1.6526915625e-002 0.0000000000e+000
7.9757215871e-003 -1.7569666179e-002 0.0000000000e+000
9.0982366908e-003 -1.8627075933e-002 0.0000000000e+000
1.0324952093e-002 -1.9698855405e-002 0.0000000000e+000
1.1657863764e-002 -2.0786551322e-002 0.0000000000e+000
1.3100138428e-002 -2.1891021839e-002 0.0000000000e+000
1.4655055253e-002 -2.3013582671e-002 0.0000000000e+000
1.6327011710e-002 -2.4154606407e-002 0.0000000000e+000
1.8121791930e-002 -2.5312789403e-002 0.0000000000e+000
2.0044770456e-002 -2.6487691081e-002 0.0000000000e+000
2.2101348134e-002 -2.7679285450e-002 0.0000000000e+000
2.4298472943e-002 -2.8885153825e-002 0.0000000000e+000
2.6641710918e-002 -3.0105662024e-002 0.0000000000e+000
2.9137208346e-002 -3.1340612233e-002 0.0000000000e+000
3.1791787710e-002 -3.2588893403e-002 0.0000000000e+000
3.4612364397e-002 -3.3849554353e-002 0.0000000000e+000
3.7605912055e-002 -3.5121923019e-002 0.0000000000e+000
4.0779412923e-002 -3.6405788998e-002 0.0000000000e+000
4.4139836775e-002 -3.7701555733e-002 0.0000000000e+000
4.7694107083e-002 -3.9010462029e-002 0.0000000000e+000
5.1451685853e-002 -4.0327145714e-002 0.0000000000e+000
5.5418366987e-002 -4.1656884223e-002 0.0000000000e+000
5.9603665703e-002 -4.2994750075e-002 0.0000000000e+000
6.4013645500e-002 -4.4346702945e-002 0.0000000000e+000
6.8660096820e-002 -4.5700299238e-002 0.0000000000e+000
7.3548446977e-002 -4.7064358118e-002 0.0000000000e+000
7.8687425449e-002 -4.8436865088e-002 0.0000000000e+000
8.4086505035e-002 -4.9812515094e-002 0.0000000000e+000
8.9754476661e-002 -5.1187832079e-002 0.0000000000e+000
9.5698464991e-002 -5.2565656641e-002 0.0000000000e+000
1.0192675240e-001 -5.3943519293e-002 0.0000000000e+000
1.0844745073e-001 -5.5318492732e-002 0.0000000000e+000
1.1526846529e-001 -5.6687013682e-002 0.0000000000e+000
1.2239743399e-001 -5.8044771530e-002 0.0000000000e+000
1.2984162306e-001 -5.9386786010e-002 0.0000000000e+000
1.3760779317e-001 -6.0707659685e-002 0.0000000000e+000
1.4570204900e-001 -6.2001987999e-002 0.0000000000e+000
1.5412971805e-001 -6.3264684587e-002 0.0000000000e+000
1.6289530429e-001 -6.4490875783e-002 0.0000000000e+000
1.7200246684e-001 -6.5675555084e-002 0.0000000000e+000
1.8145399776e-001 -6.6813108578e-002 0.0000000000e+000
1.9125210315e-001 -6.7893770142e-002 0.0000000000e+000
2.0139733113e-001 -6.8912007958e-002 0.0000000000e+000
2.1188919677e-001 -6.9860820502e-002 0.0000000000e+000
2.2272587401e-001 -7.0733830232e-002 0.0000000000e+000
2.3390421232e-001 -7.1524406940e-002 0.0000000000e+000
2.4541971932e-001 -7.2224746810e-002 0.0000000000e+000
2.5726646592e-001 -7.2825752416e-002 0.0000000000e+000
2.6943693985e-001 -7.3318240687e-002 0.0000000000e+000
2.8192197524e-001 -7.3693869922e-002 0.0000000000e+000
2.9471075851e-001 -7.3945017692e-002 0.0000000000e+000
3.0779084714e-001 -7.4063975044e-002 0.0000000000e+000
3.2114814973e-001 -7.4041102451e-002 0.0000000000e+000
3.3476661636e-001 -7.3851725142e-002 0.0000000000e+000
3.4862888142e-001 -7.3506881293e-002 0.0000000000e+000
3.6271605438e-001 -7.2999924898e-002 0.0000000000e+000
3.7700758939e-001 -7.2320819403e-002 0.0000000000e+000
3.9147937588e-001 -7.1428153401e-002 0.0000000000e+000
4.0610815945e-001 -7.0327715130e-002 0.0000000000e+000
4.2086740881e-001 -6.8999050739e-002 0.0000000000e+000
4.3573267354e-001 -6.7457567598e-002 0.0000000000e+000
4.5067846676e-001 -6.5713102162e-002 0.0000000000e+000
4.6567879794e-001 -6.3773617848e-002 0.0000000000e+000
4.8071097623e-001 -6.1673301724e-002 0.0000000000e+000
4.9575014347e-001 -5.9427113404e-002 0.0000000000e+000
5.1077205326e-001 -5.7053061939e-002 0.0000000000e+000
5.2575341086e-001 -5.4572623761e-002 0.0000000000e+000
5.4067002134e-001 -5.1998674878e-002 0.0000000000e+000
5.5549437926e-001 -4.9324173457e-002 0.0000000000e+000
5.7020996856e-001 -4.6598917428e-002 0.0000000000e+000
5.8479442778e-001 -4.3833854970e-002 0.0000000000e+000
5.9922248522e-001 -4.1021563685e-002 0.0000000000e+000
6.1347827162e-001 -3.8197834454e-002 0.0000000000e+000
6.2754454727e-001 -3.5384382155e-002 0.0000000000e+000
6.4140232440e-001 -3.2588046112e-002 0.0000000000e+000
6.5503743670e-001 -2.9833073682e-002 0.0000000000e+000
6.6843498742e-001 -2.7133202543e-002 0.0000000000e+000
6.8158137600e-001 -2.4501517561e-002 0.0000000000e+000
6.9446688098e-001 -2.1963609844e-002 0.0000000000e+000
7.0707561150e-001 -1.9506471880e-002 0.0000000000e+000
7.1940396265e-001 -1.7172360504e-002 0.0000000000e+000
7.3143875662e-001 -1.4947735198e-002 0.0000000000e+000
7.4317125101e-001 -1.2831979001e-002 0.0000000000e+000
7.5460034190e-001 -1.0862396239e-002 0.0000000000e+000
7.6571309253e-001 -8.9988954810e-003 0.0000000000e+000
7.7651112014e-001 -7.2789382812e-003 0.0000000000e+000
7.8699015140e-001 -5.6998241156e-003 0.0000000000e+000
7.9714559279e-001 -4.2461372757e-003 0.0000000000e+000
8.0697681870e-001 -2.9203317195e-003 0.0000000000e+000
8.1648376898e-001 -1.7217058488e-003 0.0000000000e+000
8.2566705665e-001 -6.4694308359e-004 0.0000000000e+000
8.3452802478e-001 3.0954077753e-004 0.0000000000e+000
8.4306880657e-001 1.1550241768e-003 0.0000000000e+000
8.5129298260e-001 1.8905226717e-003 0.0000000000e+000
8.5920391336e-001 2.5278635261e-003 0.0000000000e+000
8.6680615924e-001 3.0748261722e-003 0.0000000000e+000
8.7410511539e-001 3.5370146678e-003 0.0000000000e+000
8.8110676713e-001 3.9194212657e-003 0.0000000000e+000
8.8781754354e-001 4.2275355948e-003 0.0000000000e+000
8.9424425326e-001 4.4678297269e-003 0.0000000000e+000
9.0039405897e-001 4.6478330815e-003 0.0000000000e+000
9.0627447614e-001 4.7753233360e-003 0.0000000000e+000
9.1189343437e-001 4.8441758287e-003 0.0000000000e+000
9.1725865623e-001 4.8732063155e-003 0.0000000000e+000
9.2237837656e-001 4.8680428141e-003 0.0000000000e+000
9.2726093200e-001 4.8319495140e-003 0.0000000000e+000
9.3191433482e-001 4.7523993282e-003 0.0000000000e+000
9.3634692765e-001 4.6465299421e-003 0.0000000000e+000
9.4056698037e-001 4.5173070016e-003 0.0000000000e+000
9.4458272869e-001 4.3687689071e-003 0.0000000000e+000
9.4840175510e-001 4.1934015284e-003 0.0000000000e+000
9.5203257106e-001 4.0081334267e-003 0.0000000000e+000
9.5548330250e-001 3.8190531920e-003 0.0000000000e+000
9.5876100270e-001 3.6181084072e-003 0.0000000000e+000
9.6187413662e-001 3.4225845601e-003 0.0000000000e+000
9.6482991908e-001 3.2326539892e-003 0.0000000000e+000
9.6763384050e-001 3.0256582739e-003 0.0000000000e+000
9.7029460973e-001 2.8292305765e-003 0.0000000000e+000
9.7281879343e-001 2.6428861206e-003 0.0000000000e+000
9.7521273552e-001 2.4661565764e-003 0.0000000000e+000
9.7747957439e-001 2.2621929457e-003 0.0000000000e+000
9.7962731464e-001 2.0580482367e-003 0.0000000000e+000
9.8166131031e-001 1.8502970265e-003 0.0000000000e+000
9.8358677747e-001 1.6374110750e-003 0.0000000000e+000
9.8540896092e-001 1.4204959932e-003 0.0000000000e+000
9.8713343116e-001 1.2046048571e-003 0.0000000000e+000
9.8876540277e-001 9.9275191148e-004 0.0000000000e+000
9.9030863186e-001 7.7872475178e-004 0.0000000000e+000
9.9176912911e-001 5.7423169586e-004 0.0000000000e+000
9.9314999529e-001 3.7112890733e-004 0.0000000000e+000
9.9445666383e-001 1.7893937742e-004 0.0000000000e+000
9.9569238810e-001 -6.5872727061e-006 0.0000000000e+000
9.9686090277e-001 -1.8529389830e-004 0.0000000000e+000
9.9796617309e-001 -3.5432825661e-004 0.0000000000e+000
9.9901149331e-001 -5.1419415638e-004 0.0000000000e+000
1.0000000000e+000 -6.6537128650e-004 0.0000000000e+000
1.0000014856e+000 6.9502890552e-004 0.0000000000e+000
9.9904485156e-001 9.8632140747e-004 0.0000000000e+000
9.9803473132e-001 1.2939003142e-003 0.0000000000e+000
9.9696825280e-001 1.6186401668e-003 0.0000000000e+000
9.9584240351e-001 1.9614582616e-003 0.0000000000e+000
9.9465402529e-001 2.3233162459e-003 0.0000000000e+000
9.9339980912e-001 2.7052217111e-003 0.0000000000e+000
9.9207628988e-001 3.1082297753e-003 0.0000000000e+000
9.9067984125e-001 3.5334446440e-003 0.0000000000e+000
9.8920667066e-001 3.9820211443e-003 0.0000000000e+000
9.8765281424e-001 4.4551662609e-003 0.0000000000e+000
9.8601413113e-001 4.9541388389e-003 0.0000000000e+000
9.8428629985e-001 5.4802549770e-003 0.0000000000e+000
9.8246481433e-001 6.0348857851e-003 0.0000000000e+000
9.8054498461e-001 6.6194651247e-003 0.0000000000e+000
9.7851470435e-001 7.2110906459e-003 0.0000000000e+000
9.7637386024e-001 7.8280438183e-003 0.0000000000e+000
9.7411894189e-001 8.4778693762e-003 0.0000000000e+000
9.7174209441e-001 9.1538109812e-003 0.0000000000e+000
9.6923575540e-001 9.8509019199e-003 0.0000000000e+000
9.6659792324e-001 1.0584565994e-002 0.0000000000e+000
9.6381974552e-001 1.1346435801e-002 0.0000000000e+000
9.6089357444e-001 1.2133307994e-002 0.0000000000e+000
9.5781668258e-001 1.2960710663e-002 0.0000000000e+000
9.5457966502e-001 1.3820154532e-002 0.0000000000e+000
9.5117445985e-001 1.4708928179e-002 0.0000000000e+000
9.4759764191e-001 1.5642492881e-002 0.0000000000e+000
9.4384202116e-001 1.6622725439e-002 0.0000000000e+000
9.3989754325e-001 1.7641022886e-002 0.0000000000e+000
9.3575823210e-001 1.8705036193e-002 0.0000000000e+000
9.3141758164e-001 1.9820803810e-002 0.0000000000e+000
9.2686794165e-001 2.0990291857e-002 0.0000000000e+000
9.2210162809e-001 2.2215581600e-002 0.0000000000e+000
9.1711109038e-001 2.3499399557e-002 0.0000000000e+000
9.1188838555e-001 2.4842942561e-002 0.0000000000e+000
9.0642580950e-001 2.6248192562e-002 0.0000000000e+000
9.0071579340e-001 2.7717356107e-002 0.0000000000e+000
8.9475090079e-001 2.9252680553e-002 0.0000000000e+000
8.8852363980e-001 3.0855536679e-002 0.0000000000e+000
8.8202676206e-001 3.2527377628e-002 0.0000000000e+000
8.7525189831e-001 3.4264210333e-002 0.0000000000e+000
8.6819398699e-001 3.6073606339e-002 0.0000000000e+000
8.6084623365e-001 3.7954820237e-002 0.0000000000e+000
8.5320097747e-001 3.9901891779e-002 0.0000000000e+000
8.4525533526e-001 4.1925464985e-002 0.0000000000e+000
8.3700208210e-001 4.4016743340e-002 0.0000000000e+000
8.2843806220e-001 4.6180295701e-002 0.0000000000e+000
8.1955998599e-001 4.8417137403e-002 0.0000000000e+000
8.1036292669e-001 5.0718526325e-002 0.0000000000e+000
8.0084802296e-001 5.3096216466e-002 0.0000000000e+000
7.9100918850e-001 5.5529135470e-002 0.0000000000e+000
7.8085164754e-001 5.8037424021e-002 0.0000000000e+000
7.7036936754e-001 6.0591109570e-002 0.0000000000e+000
7.5957046303e-001 6.3212913380e-002 0.0000000000e+000
7.4845145169e-001 6.5872896917e-002 0.0000000000e+000
7.3702088482e-001 6.8585210505e-002 0.0000000000e+000
7.2528151408e-001 7.1334570786e-002 0.0000000000e+000
7.1323897105e-001 7.4111137455e-002 0.0000000000e+000
7.0090619333e-001 7.6931351333e-002 0.0000000000e+000
6.8828243608e-001 7.9744731134e-002 0.0000000000e+000
6.7538736909e-001 8.2584569143e-002 0.0000000000e+000
6.6223038613e-001 8.5433036808e-002 0.0000000000e+000
6.4881854728e-001 8.8252803882e-002 0.0000000000e+000
6.3517316801e-001 9.1067246486e-002 0.0000000000e+000
6.2130694778e-001 9.3853559872e-002 0.0000000000e+000
6.0722951169e-001 9.6563465064e-002 0.0000000000e+000
5.9296745776e-001 9.9229469490e-002 0.0000000000e+000
5.7853782716e-001 1.0183081799e-001 0.0000000000e+000
5.6395596868e-001 1.0432816023e-001 0.0000000000e+000
5.4924485931e-001 1.0671792463e-001 0.0000000000e+000
5.3442793307e-001 1.0899632923e-001 0.0000000000e+000
5.1952679822e-001 1.1114353203e-001 0.0000000000e+000
5.0456410254e-001 1.1314090338e-001 0.0000000000e+000
4.8956268539e-001 1.1496508443e-001 0.0000000000e+000
4.7454559530e-001 1.1658699025e-001 0.0000000000e+000
4.5954092929e-001 1.1802045007e-001 0.0000000000e+000
4.4457213711e-001 1.1923254464e-001 0.0000000000e+000
4.2966584591e-001 1.2022520146e-001 0.0000000000e+000
4.1484640751e-001 1.2096334549e-001 0.0000000000e+000
4.0013990456e-001 1.2143435567e-001 0.0000000000e+000
3.8557220792e-001 1.2161832645e-001 0.0000000000e+000
3.7116942612e-001 1.2152686034e-001 0.0000000000e+000
3.5695579444e-001 1.2118925068e-001 0.0000000000e+000
3.4295308334e-001 1.2063400434e-001 0.0000000000e+000
3.2918265699e-001 1.1985685787e-001 0.0000000000e+000
3.1566237218e-001 1.1889152822e-001 0.0000000000e+000
3.0240893190e-001 1.1775178373e-001 0.0000000000e+000
2.8943836130e-001 1.1644367973e-001 0.0000000000e+000
2.7676298950e-001 1.1499148906e-001 0.0000000000e+000
2.6439553688e-001 1.1340062527e-001 0.0000000000e+000
2.5234642795e-001 1.1168195360e-001 0.0000000000e+000
2.4062185678e-001 1.0986364886e-001 0.0000000000e+000
2.2923352201e-001 1.0792794273e-001 0.0000000000e+000
2.1818271326e-001 1.0591185295e-001 0.0000000000e+000
2.0747366044e-001 1.0382393301e-001 0.0000000000e+000
1.9711370920e-001 1.0165149427e-001 0.0000000000e+000
1.8709942620e-001 9.9428186620e-002 0.0000000000e+000
1.7743095069e-001 9.7162445201e-002 0.0000000000e+000
1.6811060874e-001 9.4849178691e-002 0.0000000000e+000
1.5913493089e-001 9.2502984488e-002 0.0000000000e+000
1.5049955637e-001 9.0136707158e-002 0.0000000000e+000
1.4220171073e-001 8.7753335328e-002 0.0000000000e+000
1.3424026797e-001 8.5347902858e-002 0.0000000000e+000
1.2660545721e-001 8.2941688932e-002 0.0000000000e+000
1.1929119117e-001 8.0540295260e-002 0.0000000000e+000
1.1229582798e-001 7.8134481896e-002 0.0000000000e+000
1.0560739280e-001 7.5743850548e-002 0.0000000000e+000
9.9217897808e-002 7.3373937853e-002 0.0000000000e+000
9.3123041256e-002 7.1019414427e-002 0.0000000000e+000
8.7312841471e-002 6.8689027863e-002 0.0000000000e+000
8.1777206999e-002 6.6390336859e-002 0.0000000000e+000
7.6511800120e-002 6.4116413533e-002 0.0000000000e+000
7.1505805476e-002 6.1875211330e-002 0.0000000000e+000
6.6750099643e-002 5.9670082484e-002 0.0000000000e+000
6.2239432667e-002 5.7495813572e-002 0.0000000000e+000
5.7960429147e-002 5.5364065843e-002 0.0000000000e+000
5.3909818934e-002 5.3265724389e-002 0.0000000000e+000
5.0073188711e-002 5.1213529485e-002 0.0000000000e+000
4.6447237463e-002 4.9198948823e-002 0.0000000000e+000
4.3018592551e-002 4.7232046189e-002 0.0000000000e+000
3.9782678485e-002 4.5307145975e-002 0.0000000000e+000
3.6728595248e-002 4.3429695721e-002 0.0000000000e+000
3.3849543953e-002 4.1598214462e-002 0.0000000000e+000
3.1138861729e-002 3.9811475928e-002 0.0000000000e+000
2.8587832830e-002 3.8071497708e-002 0.0000000000e+000
2.6190859988e-002 3.6375859842e-002 0.0000000000e+000
2.3943037088e-002 3.4721716245e-002 0.0000000000e+000
2.1837206841e-002 3.3109672510e-002 0.0000000000e+000
1.9868090442e-002 3.1538083151e-002 0.0000000000e+000
1.8030287468e-002 3.0005852430e-002 0.0000000000e+000
1.6317301713e-002 2.8513458901e-002 0.0000000000e+000
1.4723109289e-002 2.7060965473e-002 0.0000000000e+000
1.3244201434e-002 2.5645957155e-002 0.0000000000e+000
1.1872568134e-002 2.4271027844e-002 0.0000000000e+000
1.0605458639e-002 2.2933527261e-002 0.0000000000e+000
9.4364900958e-003 2.1634615348e-002 0.0000000000e+000
8.3614618524e-003 2.0373499223e-002 0.0000000000e+000
7.3762772342e-003 1.9149541415e-002 0.0000000000e+000
6.4767679056e-003 1.7962361914e-002 0.0000000000e+000
5.6586788796e-003 1.6811789912e-002 0.0000000000e+000
4.9177262929e-003 1.5697771481e-002 0.0000000000e+000
4.2504639594e-003 1.4619811648e-002 0.0000000000e+000
3.6523657753e-003 1.3578182888e-002 0.0000000000e+000
3.1196311998e-003 1.2572752538e-002 0.0000000000e+000
2.6476259758e-003 1.1603828471e-002 0.0000000000e+000
2.2326145645e-003 1.0671246250e-002 0.0000000000e+000
1.8690908712e-003 9.7755524200e-003 0.0000000000e+000
1.5534649429e-003 8.9163718205e-003 0.0000000000e+000
1.2803051060e-003 8.0939205573e-003 0.0000000000e+000
1.0452242219e-003 7.3078681773e-003 0.0000000000e+000
8.4408478541e-004 6.5576965418e-003 0.0000000000e+000
6.7278238186e-004 5.8427718597e-003 0.0000000000e+000
5.2744592267e-004 5.1622970130e-003 0.0000000000e+000
4.0567161216e-004 4.5151181213e-003 0.0000000000e+000
3.0402477015e-004 3.9002615094e-003 0.0000000000e+000
2.2030154659e-004 3.3165056038e-003 0.0000000000e+000
1.5270487397e-004 2.7625854341e-003 0.0000000000e+000
9.9374587849e-005 2.2372970831e-003 0.0000000000e+000
5.8645651082e-005 1.7394186662e-003 0.0000000000e+000
2.9105792000e-005 1.2677394088e-003 0.0000000000e+000
9.4312545322e-006 8.2107696417e-004 0.0000000000e+000
-1.5008975864e-006 3.9827072515e-004 0.0000000000e+000
-4.7483046653e-006 -1.7965509580e-006 0.0000000000e+000
-1.2267789988e-006 -4.0186062813e-004 0.0000000000e+000
1.0070270256e-005 -8.2529283255e-004 0.0000000000e+000
3.0704157334e-005 -1.2732641832e-003 0.0000000000e+000
6.2267564855e-005 -1.7469602598e-003 0.0000000000e+000
1.0686980758e-004 -2.2475381661e-003 0.0000000000e+000
1.6643432980e-004 -2.7761689314e-003 0.0000000000e+000
2.4349220356e-004 -3.3339475910e-003 0.0000000000e+000
3.4052076112e-004 -3.9219550702e-003 0.0000000000e+000
4.6052900303e-004 -4.5411542508e-003 0.0000000000e+000
6.0672661591e-004 -5.1924085861e-003 0.0000000000e+000
7.8250301268e-004 -5.8764842651e-003 0.0000000000e+000
9.9208140878e-004 -6.5938230952e-003 0.0000000000e+000
1.2390850918e-003 -7.3449303457e-003 0.0000000000e+000
1.5287046034e-003 -8.1296629258e-003 0.0000000000e+000
1.8654631662e-003 -8.9479030663e-003 0.0000000000e+000
2.2546519200e-003 -9.7990398995e-003 0.0000000000e+000
2.7023845464e-003 -1.0681789733e-002 0.0000000000e+000
3.2140957607e-003 -1.1594879677e-002 0.0000000000e+000
3.7963134708e-003 -1.2536091308e-002 0.0000000000e+000
4.4550285844e-003 -1.3503155955e-002 0.0000000000e+000
5.1966194242e-003 -1.4493087570e-002 0.0000000000e+000
6.0269364103e-003 -1.5502899813e-002 0.0000000000e+000
6.9506942802e-003 -1.6530271454e-002 0.0000000000e+000
7.9722432640e-003 -1.7573172809e-002 0.0000000000e+000
9.0948884745e-003 -1.8630721547e-002 0.0000000000e+000
1.0321728704e-002 -1.9702626931e-002 0.0000000000e+000
1.1654759321e-002 -2.0790435574e-002 0.0000000000e+000
1.3097147719e-002 -2.1895006163e-002 0.0000000000e+000
1.4652174035e-002 -2.3017656063e-002 0.0000000000e+000
1.6324236809e-002 -2.4158759750e-002 0.0000000000e+000
1.8119120717e-002 -2.5317015535e-002 0.0000000000e+000
2.0042200561e-002 -2.6491984128e-002 0.0000000000e+000
2.2098877049e-002 -2.7683640513e-002 0.0000000000e+000
2.4296098055e-002 -2.8889566326e-002 0.0000000000e+000
2.6639429396e-002 -3.0110127737e-002 0.0000000000e+000
2.9135017400e-002 -3.1345127003e-002 0.0000000000e+000
3.1789684472e-002 -3.2593453488e-002 0.0000000000e+000
3.4610345824e-002 -3.3854156378e-002 0.0000000000e+000
3.7603974909e-002 -3.5126563745e-002 0.0000000000e+000
4.0777553796e-002 -3.6410465441e-002 0.0000000000e+000
4.4138052551e-002 -3.7706264606e-002 0.0000000000e+000
4.7692394579e-002 -3.9015200948e-002 0.0000000000e+000
5.1450042325e-002 -4.0331911721e-002 0.0000000000e+000
5.5416789486e-002 -4.1661675598e-002 0.0000000000e+000
5.9602151981e-002 -4.2999564038e-002 0.0000000000e+000
6.4012193105e-002 -4.4351538339e-002 0.0000000000e+000
6.8658703801e-002 -4.5705153835e-002 0.0000000000e+000
7.3547111241e-002 -4.7069230854e-002 0.0000000000e+000
7.8686145471e-002 -4.8441754089e-002 0.0000000000e+000